<VTKFile type="UnstructuredGrid" version="0.1" byte_order="LittleEndian">
<UnstructuredGrid>
<Piece NumberOfPoints="9" NumberOfCells="12">
<Points>
<DataArray type="Float64" NumberOfComponents="3" format="ascii">
 1.00000000e+00  0.00000000e+00  1.00000000e+00
 0.00000000e+00  0.00000000e+00  0.00000000e+00
 0.00000000e+00  0.00000000e+00  1.00000000e+00
 4.92907375e-01  5.33767402e-01  5.47177196e-01
 0.00000000e+00  1.00000000e+00  0.00000000e+00
 0.00000000e+00  1.00000000e+00  1.00000000e+00
 1.00000000e+00  0.00000000e+00  0.00000000e+00
 1.00000000e+00  1.00000000e+00  0.00000000e+00
 1.00000000e+00  1.00000000e+00  1.00000000e+00
</DataArray>
</Points>
<PointData Vectors="Displacements" >
<DataArray type="Float32" Name="Displacements" NumberOfComponents="3" format="ascii">
4.99387383e-01 0.00000000e+00 -6.02027848e-02
0.00000000e+00 0.00000000e+00 0.00000000e+00
0.00000000e+00 0.00000000e+00 -6.02057576e-02
2.46153459e-01 -3.21358144e-02 -3.29442136e-02
0.00000000e+00 -6.02063201e-02 0.00000000e+00
0.00000000e+00 -6.02023751e-02 -6.02026880e-02
4.99387383e-01 0.00000000e+00 0.00000000e+00
4.99387383e-01 -6.02022409e-02 0.00000000e+00
4.99387383e-01 -6.02074973e-02 -6.02064505e-02
</DataArray>
</PointData>
<Cells>
<DataArray type="Int32" Name="connectivity" format="ascii">
0 1 2 3
3 1 2 4
4 3 5 2
1 4 3 6
7 3 8 5
6 7 3 8
6 4 3 7
6 3 0 8
2 3 5 0
3 0 8 5
1 3 0 6
4 3 7 5
</DataArray>
<DataArray type="Int32" Name="offsets" format="ascii">
4
8
12
16
20
24
28
32
36
40
44
48
</DataArray>
<DataArray type="UInt8" Name="types" format="ascii">
10
10
10
10
10
10
10
10
10
10
10
10
</DataArray>
</Cells>
<CellData Vectors="FIB_DIR,FIB_DIR2" >
<DataArray type="Float32" Name="FIB_DIR" NumberOfComponents="3" format="ascii">
1.00000000e+00 -1.84585247e-07 3.29778089e-07
1.00000000e+00 1.63696669e-07 -1.78754831e-07
1.00000000e+00 4.35378169e-08 -3.30326998e-07
1.00000000e+00 1.14254746e-07 -8.96229579e-08
1.00000000e+00 -6.62119419e-07 -5.16429509e-07
1.00000000e+00 -4.04900931e-07 -8.50765787e-08
1.00000000e+00 4.12111348e-07 -1.71915374e-07
1.00000000e+00 -5.76941545e-07 7.39907051e-08
1.00000000e+00 -2.48063373e-07 2.27228327e-07
1.00000000e+00 -8.61307853e-07 -3.44565365e-07
1.00000000e+00 -1.93090855e-07 1.08552626e-07
1.00000000e+00 3.47856684e-07 -2.81169179e-07
</DataArray>
</CellData>
</Piece>
</UnstructuredGrid>
</VTKFile>
